32
Lattice="8.0 0.0 0.0 0.0 8.0 0.0 0.0 0.0 8.0" Properties=species:S:1:pos:R:3:momenta:R:3 "potential energy"=-105.81661525819456 "kinetic energy"=1.5608974331657688 pbc="T T T"
Al      -0.00704853      -0.20133522      -0.03021527      -1.10047494       0.05843538       1.48228502
Al       1.94913970       2.11346149       0.04095178      -1.08916713      -0.50466416       0.52726993
Al       1.81083022      -0.15783020       2.10529744      -0.04590151      -0.21746331       0.44376126
Al      -0.03334345       2.13854586       1.95652558      -0.47116352       1.25342223       2.07821903
Al      -0.25256605      -0.06929200       4.01197139       1.68796417      -1.64650507      -0.36426857
Al       1.90875450       1.87249169       3.98979740      -1.20755935       0.37229963       0.25968158
Al       1.92765287      -0.05264239       6.10045441       0.28644413      -0.65117119       0.09944656
Al       0.10009090       1.96212121       6.04487026       0.12873868      -1.24530420      -0.29091643
Al      -0.05208220       4.04896311      -0.08712413      -0.79434536      -1.02697472       1.36779336
Al       2.08406103       5.97039155       0.18591647       0.49913810      -0.22872205       0.10407122
Al       1.92421657       4.03109134       2.09129691      -0.68186969      -0.11170666       0.40074221
Al      -0.19681310       5.95543093       2.02760500       0.69029055      -0.74931179      -2.57709335
Al       0.02924539       3.87014802       4.04920618      -0.72431989       0.48871045      -0.12561794
Al       2.04360885       5.99745694       3.97966005       0.98473299       1.26774075      -1.33778071
Al       1.97098849       4.17458500       6.01957310       0.14490838      -1.62774508       0.82899937
Al      -0.18160245       6.10987438       5.93085299       0.24663251       0.29540504       0.92058197
Al       3.87186206      -0.04106096      -0.10015744       0.90629706       0.45508860      -1.20581178
Al       6.10500271       1.96299792      -0.07640294      -0.80869765       0.60830202      -0.35674834
Al       6.01614536       0.06684667       1.98351137      -1.13947560      -0.04151760      -0.30852832
Al       4.20258567       2.09508676       2.16303647       1.30292484      -1.23466318      -1.41659771
Al       4.03570117      -0.00594611       4.01911239      -1.13870460       1.86559239       0.13662556
Al       6.01858576       1.95095885       4.07366963       0.95638807       0.55706549       0.13999107
Al       5.78354381       0.10168368       6.06137480       0.12220096      -0.64740121      -0.25480145
Al       3.80296389       2.10454459       5.89003424       1.40163759      -0.51613841      -0.59105420
Al       3.97421359       3.90211931       0.15953506       0.36676063       0.93122297      -0.53784692
Al       5.93322146       5.97157705      -0.12032081      -0.70125382       1.73031941      -0.74303377
Al       5.96650754       4.12976389       2.14032922      -0.34811731       1.31495123       1.36049910
Al       3.90770678       6.03747461       2.09589684       1.56180349      -0.48117529       1.32885253
Al       3.89147290       4.06285928       3.98800550      -0.24730765      -0.03919925      -1.28091818
Al       5.94328623       5.97248490       4.09099826      -0.42241794       0.83336108      -0.54614456
Al       5.86220254       3.92869129       6.12754428       0.91440225      -0.32120976       1.36483137
Al       3.98931193       5.93107023       5.97378113      -1.28048844      -0.74104375      -0.90648893
32
Lattice="8.0 0.0 0.0 0.0 8.0 0.0 0.0 0.0 8.0" Properties=species:S:1:pos:R:3:momenta:R:3 "potential energy"=-105.87220700895975 "kinetic energy"=1.5756374242122284 pbc="T T T"
Al      -0.05820103      -0.18053672       0.02034604      -1.40647412       1.14207634       1.56305168
Al       1.91237334       2.08404525       0.06663439      -0.67721498      -1.21383792       0.75059498
Al       1.80306264      -0.15880071       2.11817430      -0.01564684       0.26472489       0.26446190
Al      -0.04796174       2.17132063       2.03507198      -0.45633406       0.37440425       1.94183622
Al      -0.17189605      -0.11392970       3.99832392       2.52490829      -0.68759838      -0.32795519
Al       1.86782676       1.88103465       3.98687854      -0.68136651       0.24251072      -0.28251507
Al       1.93701983      -0.07609075       6.09970414       0.32834233      -0.62481781      -0.29134894
Al       0.09035504       1.90278736       6.04164250      -0.55460235      -1.57888250       0.20914899
Al      -0.08644993       4.02219054      -0.03636297      -0.85222994      -0.61709859       1.31483334
Al       2.08674061       5.95683641       0.18301674       0.01836769      -0.40705716      -0.32642785
Al       1.90340193       4.02486119       2.09715429      -0.64980765      -0.30561787       0.13903988
Al      -0.17347228       5.92357797       1.94005262       0.81908788      -0.48433105      -1.95516125
Al       0.00973202       3.88780434       4.04859217      -0.44860418       0.81843399      -0.15907869
Al       2.05858195       6.03563383       3.93650233       0.16483527       0.35448884      -0.74255803
Al       1.96966449       4.10303426       6.02629264      -0.02889974      -2.26663834      -0.11767480
Al      -0.15419558       6.09325264       5.97169713       1.17346661      -0.90923461       1.47806840
Al       3.92028261      -0.02447998      -0.12601496       1.53890698       0.60094778      -0.42793141
Al       6.05906781       1.97986404      -0.07852698      -1.58277101       0.57850653       0.28565831
Al       5.96706745       0.04806540       1.96363346      -1.22469783      -0.73096580      -0.40951055
Al       4.22325800       2.04808624       2.09882791      -0.08959177      -1.27800959      -1.84784810
Al       3.98874666       0.06621336       4.02216032      -1.10181250       2.04168964      -0.03875169
Al       6.04290185       1.98508638       4.09202527       0.61399511       1.18898066       0.60328386
Al       5.79541516       0.07702868       6.05593743       0.58081783      -0.34277120      -0.39078179
Al       3.84699502       2.08571936       5.88378547       1.04747649      -0.64793432       0.07940073
Al       3.98389703       3.94018264       0.12688470       0.14026749       1.30746270      -1.18713248
Al       5.90933826       6.03183225      -0.13085459      -0.61217387       1.80452481       0.43651297
Al       5.94473625       4.16550796       2.18355496      -0.64239812       0.74975200       0.42858267
Al       3.96354906       6.01099697       2.12875110       1.73031673      -0.25893440       0.29267235
Al       3.89755569       4.06059365       3.94711580       0.52852265      -0.09728504      -0.69227310
Al       5.92008465       6.00127946       4.06319905      -0.50330625       0.98412284      -0.66854459
Al       5.90912833       3.91828352       6.16690586       1.61985250       0.04051376       0.83299492
Al       3.93890606       5.91319231       5.94331118      -1.30123212      -0.04212516      -0.75464766
32
Lattice="8.0 0.0 0.0 0.0 8.0 0.0 0.0 0.0 8.0" Properties=species:S:1:pos:R:3:momenta:R:3 "potential energy"=-105.97886534986046 "kinetic energy"=1.6810011620918262 pbc="T T T"
Al      -0.10289270      -0.14189345       0.07556314      -0.78674540       1.13807383       1.43840125
Al       1.88800288       2.03546021       0.09586135      -0.62782149      -1.04813284       0.82094880
Al       1.80846472      -0.13376601       2.11355793       0.35384880       1.03450194      -0.53351073
Al      -0.06425814       2.18440214       2.09328565      -0.59406374      -0.08679507       1.29284688
Al      -0.08243359      -0.13985468       3.99056239       2.29679894      -0.72530605      -0.12749652
Al       1.85248236       1.88676095       3.97204785      -0.43378449      -0.01424258      -0.35790271
Al       1.95811527      -0.09886133       6.08719862       0.83684580      -0.34428285      -0.44251707
Al       0.05296430       1.84530182       6.03637267      -1.22680918      -1.49793386      -0.26070489
Al      -0.11518006       4.01482755       0.02092931      -0.67769105      -0.10145846       1.70152834
Al       2.07187509       5.94653278       0.17022778      -0.80746997      -0.17900631      -0.48137000
Al       1.88162767       4.00685856       2.10057384      -0.40019238      -0.84664057      -0.10621398
Al      -0.13781635       5.90492671       1.87350290       1.26556932      -0.63251189      -1.52412950
Al      -0.00696113       3.92297420       4.05187065      -0.56056032       1.33736113       0.28493292
Al       2.04918654       6.04891221       3.92688175      -0.55923236       0.60451193       0.09561764
Al       1.95996857       4.01714558       6.01532796      -0.46515296      -2.25588524      -0.49687421
Al      -0.10187841       6.04095507       6.02054467       1.62636404      -1.83792635       1.13860654
Al       3.97483093       0.00615331      -0.13063434       1.04238486       1.13284101       0.31913474
Al       5.99666716       1.99775678      -0.04319654      -1.86846902       0.49237721       1.13836708
Al       5.93443625       0.02638376       1.95373786      -0.71306387      -0.48652328      -0.10490433
Al       4.20654708       1.99355671       2.02801738      -0.98188900      -1.49016015      -1.83485146
Al       3.94597306       0.13753793       4.01315272      -1.08945455       1.71318471      -0.32914242
Al       6.06656056       2.03019439       4.11124748       0.37142435       1.41806006       0.84742515
Al       5.83016410       0.05948185       6.04054752       1.45883595      -0.50748817      -0.48544925
Al       3.89645901       2.06020640       5.90227470       1.53677945      -0.80483195       0.77553307
Al       3.98700147       3.98963499       0.08312424      -0.11724596       1.08920634      -1.16294188
Al       5.88016928       6.09476712      -0.10388332      -0.82454867       1.51715008       0.94459593
Al       5.92434994       4.17968076       2.17628458      -0.44293373       0.15653189      -0.57027082
Al       4.02850411       6.00652270       2.11068098       1.43942509      -0.10675147      -1.08319054
Al       3.91597897       4.04524205       3.93291425       0.57255013      -0.73873757      -0.23156889
Al       5.91636410       6.04788896       4.04643534       0.05572328       1.49997984      -0.32844427
Al       5.96293160       3.93108954       6.18385140       1.26113725       0.78166743      -0.22114684
Al       3.89949391       5.90813429       5.93110647      -0.94055913      -0.21083275      -0.11530805
32
Lattice="8.0 0.0 0.0 0.0 8.0 0.0 0.0 0.0 8.0" Properties=species:S:1:pos:R:3:momenta:R:3 "potential energy"=-106.06727072033713 "kinetic energy"=1.7413268381501577 pbc="T T T"
Al      -0.12768260      -0.09301300       0.12988030      -0.37691279       1.62546759       1.23475955
Al       1.86810620       1.99377244       0.12670672      -0.37506328      -1.49426512       0.68948258
Al       1.82033575      -0.08359429       2.07521163       0.58806237       1.74639023      -1.61106638
Al      -0.09643715       2.15905449       2.13092316      -1.12501886      -1.04058813       0.78921883
Al      -0.01001687      -0.15420902       3.98795878       1.37956381      -0.13324751       0.04974942
Al       1.84327743       1.89113057       3.97305888      -0.05121137       0.20614734       0.09855843
Al       1.99512544      -0.12895653       6.05302189       1.15022954      -0.94632865      -1.00834898
Al       0.00633930       1.79845458       6.03329235      -1.02853088      -1.26081651       0.31072145
Al      -0.13729303       4.00555898       0.07924711      -0.59349413      -0.37986159       1.30519750
Al       2.02906779       5.93318852       0.14120075      -1.23803111      -0.31726669      -1.25689947
Al       1.87795897       3.97725196       2.07760858       0.52108788      -0.95086543      -0.70801785
Al      -0.09369494       5.89144036       1.82088025       1.17983552      -0.22492724      -1.09590411
Al      -0.03435849       3.97916725       4.07061541      -1.01318834       1.77315847       0.43746770
Al       2.01803126       6.07794248       3.94280113      -1.05068866       0.79722675       0.33768119
Al       1.93329473       3.93601323       6.00081315      -0.75055922      -2.06959266      -0.22541273
Al      -0.03890988       5.97517046       6.05753617       1.64474763      -1.42287656       0.70556706
Al       3.99498515       0.05029547      -0.10615124       0.07364160       1.10543168       1.10318073
Al       5.92596458       2.01381491       0.00751811      -1.36990961       0.37957698       1.39656918
Al       5.91463870       0.02416066       1.95778356      -0.29599869       0.18137418       0.58134329
Al       4.15626240       1.94403319       1.96675390      -1.95916880      -1.24592661      -1.46881817
Al       3.90550274       0.20152776       3.99572457      -0.92191390       1.45359614      -0.50982593
Al       6.07951741       2.08310859       4.14816678       0.32114177       1.37751487       0.79920009
Al       5.90080165       0.04183290       6.02043385       2.29820402      -0.69797475      -0.66708226
Al       3.95189508       2.03673502       5.94695742       1.45067993      -0.50679675       1.40527483
Al       3.98471415       4.02656006       0.04910648      -0.08005374       0.43022102      -0.97421654
Al       5.84559084       6.13141433      -0.05906117      -0.51015763       0.42177230       1.27540667
Al       5.91822199       4.16743201       2.14731991       0.30708651      -0.85486424      -1.12436479
Al       4.06260162       6.01578395       2.06594867       0.45817116       0.72381441      -0.90050111
Al       3.92947647       4.00947519       3.92747149       0.58966444      -1.15107332      -0.09360546
Al       5.92848844       6.10031250       4.04577491       0.60125314       1.00649213      -0.01672116
Al       6.00322613       3.96799601       6.16428982       0.78936690       1.12349833      -0.83921399
Al       3.86551074       5.91770382       5.93479678      -0.61283519       0.34558930      -0.01937957
32
Lattice="8.0 0.0 0.0 0.0 8.0 0.0 0.0 0.0 8.0" Properties=species:S:1:pos:R:3:momenta:R:3 "potential energy"=-106.06425167508883 "kinetic energy"=1.71782987351606 pbc="T T T"
Al      -0.13208261      -0.01740710       0.16566001       0.08603008       2.41325083       0.62189980
Al       1.85647367       1.94572422       0.15704630      -0.12758211      -1.21741005       0.51261429
Al       1.84357220      -0.02603695       2.01141957       0.83960031       1.26352118      -1.61007642
Al      -0.14660256       2.11075093       2.14665741      -0.99533605      -1.66000706       0.14055617
Al       0.02133143      -0.15244027       3.99242506       0.69526670       0.43280464       0.14488221
Al       1.84419269       1.90022957       3.98334800       0.42939291       0.02407246       0.24429769
Al       2.01798891      -0.14522963       6.02351365       0.52160101      -0.02345725      -0.91158130
Al      -0.03199480       1.77101359       6.04765786      -1.03864675      -0.40007056       0.35215833
Al      -0.15385415       3.97842838       0.12945096       0.01865240      -1.13565846       1.00869867
Al       1.97543759       5.92713671       0.09616155      -1.12193543      -0.11674166      -1.52467602
Al       1.90028427       3.94361596       2.04997983       0.75187845      -0.84169076      -0.53912496
Al      -0.05964058       5.88790173       1.80638014       0.66162636       0.37286708       0.51543208
Al      -0.06955110       4.04907079       4.09302635      -0.50521201       2.24001945       0.39748597
Al       1.97784875       6.10809769       3.95166618      -0.96872171       0.60818252       0.21956337
Al       1.89855249       3.86028736       5.99712181      -0.89146314      -2.05377339       0.12746186
Al       0.02830242       5.92162866       6.06856734       2.22620330      -1.26526725       0.21458961
Al       3.99543943       0.08602215      -0.06431876      -0.26883378       0.79172003       0.89474940
Al       5.87608181       2.03374201       0.05856172      -1.21650861       0.52703416       1.36964885
Al       5.90402562       0.02609035       1.99323585      -0.31208868       0.23699048       1.25800401
Al       4.07076192       1.90514710       1.92487700      -2.76910336      -0.97132603      -0.95819134
Al       3.87407195       0.24944058       3.98265244      -0.33216947       1.08141577      -0.50007581
Al       6.07491272       2.12980680       4.17329787      -0.45213076       1.05907338       0.28157272
Al       5.98336151       0.01263546       5.99873147       2.15041557      -0.85812043      -0.47576325
Al       3.99695799       2.02370903       6.00943370       1.39463653      -0.01323410       1.83410356
Al       3.98129294       4.02705266       0.01434922       0.10174576      -0.16007224      -0.76525630
Al       5.82922406       6.12724948      -0.00768881      -0.15658349      -0.31643400       0.98832264
Al       5.94492189       4.11942294       2.09727912       0.85939384      -1.55411844      -1.46863950
Al       4.06231898       6.04249289       2.02602524      -0.48973879       0.62805809      -1.31308858
Al       3.93646180       3.96096317       3.93712474      -0.08225392      -1.16430803       0.39060863
Al       5.94022338       6.13700381       4.04239831       0.34950256       0.62568596      -0.33260964
Al       6.02814218       4.01063652       6.12327393       0.64564254       0.87145646      -1.56703759
Al       3.84450413       5.93519971       5.94540261      -0.00328028       0.57553725       0.44947085
32
Lattice="8.0 0.0 0.0 0.0 8.0 0.0 0.0 0.0 8.0" Properties=species:S:1:pos:R:3:momenta:R:3 "potential energy"=-105.91883187065037 "kinetic energy"=1.6647827822554655 pbc="T T T"
Al      -0.13276508       0.07088837       0.16096418      -0.08733698       2.11883621      -0.20099147
Al       1.86095411       1.90442488       0.15034133       0.20336423      -0.84022577      -0.25417184
Al       1.87987312       0.02246846       1.94634934       1.18711526       1.17063361      -1.34987486
Al      -0.19894140       2.04575187       2.13984678      -1.45340001      -2.16750996      -0.07453040
Al       0.03793444      -0.12913113       3.99207747       0.51481773       0.73136697       0.14384527
Al       1.85584880       1.91787514       3.98928430       0.22313118       0.98406788       0.49317760
Al       2.02310727      -0.12779435       5.99530432      -0.10249858       0.40666917      -0.45133502
Al      -0.07892077       1.76580108       6.05480883      -0.99702934      -0.00643421       0.19713755
Al      -0.14666383       3.92451535       0.15103890       0.76547707      -1.96266776       0.48437031
Al       1.93792408       5.92317263       0.03576910      -0.92148813      -0.05212296      -1.78234660
Al       1.93918112       3.92464723       2.02530321       1.26404473      -0.43198511      -0.51377120
Al      -0.03896186       5.91536489       1.83706559       0.54430170       1.07383115       1.42925936
Al      -0.08812271       4.15197703       4.09990609      -0.27197558       3.14764876       0.29667703
Al       1.94357278       6.12715617       3.95283548      -0.34085616      -0.05953893       0.15709095
Al       1.86833919       3.79522372       5.98871044      -0.82328336      -2.00984090      -0.02689586
Al       0.10091936       5.88510672       6.08049526       1.42786481      -0.68910441       0.59480175
Al       3.98163999       0.10790582      -0.03297917      -0.51365368      -0.11750475       0.88700547
Al       5.84597293       2.06146991       0.08877484      -0.48864215       0.71059856       0.80884993
Al       5.89678550       0.03553877       2.03377730       0.00911534       0.14050021       1.20190463
Al       3.96623419       1.89842337       1.88708835      -2.44988849       0.32811283      -0.61393923
Al       3.86705638       0.27907604       3.95758633       0.00722477       0.37652107      -0.30973029
Al       6.04447914       2.16180515       4.16978920      -0.73200926       0.40905679      -0.09216822
Al       6.05414849      -0.02433825       5.97874260       1.52851426      -1.10823958      -0.19756315
Al       4.04091338       2.02580056       6.06903277       1.21068908       0.15847744       1.47255421
Al       3.97249827       4.02347362      -0.01554408      -0.30611799      -0.31362622      -0.81036046
Al       5.83931474       6.11200642       0.02294222       0.71878286      -0.72382271       1.04973714
Al       5.97399005       4.05197189       2.03954504       0.52401647      -1.98369237      -1.10230512
Al       4.02546143       6.06666978       1.97210216      -1.14190665       0.33022600      -1.05555254
Al       3.92302267       3.92827907       3.96272828      -0.44440717      -1.05751637       0.92394791
Al       5.94471166       6.15892591       4.03220249      -0.07572786       0.06422866      -0.06155518
Al       6.05642915       4.04918626       6.05255881       0.87630298       1.01566774      -1.85866304
Al       3.83715809       5.95968381       5.95895165       0.14545893       0.35738895       0.61539536
32
Lattice="8.0 0.0 0.0 0.0 8.0 0.0 0.0 0.0 8.0" Properties=species:S:1:pos:R:3:momenta:R:3 "potential energy"=-105.6867424659995 "kinetic energy"=1.3813884371184404 pbc="T T T"
Al      -0.13516373       0.14553141       0.13957587      -0.11730438       1.55998355      -0.78949648
Al       1.86675515       1.87997366       0.12854073       0.32086028      -0.54823968      -0.94400335
Al       1.91935455       0.06179507       1.90204055       0.98720040       0.55311745      -1.15204927
Al      -0.22646830       1.97811220       2.13944268      -0.42197142      -1.46436093       0.01008826
Al       0.04158135      -0.09407893       3.99809824      -0.11081091       1.01993555       0.24326725
Al       1.86840941       1.95894043       4.00477366       0.33555410       1.00620440       0.19300386
Al       2.01653107      -0.09668612       5.97943574      -0.22709138       1.32950630      -0.33795523
Al      -0.11521292       1.76646296       6.07447230      -0.94458322       0.15875020       0.58681453
Al      -0.11243561       3.85030774       0.15381422       1.26184815      -1.94824463      -0.40843154
Al       1.90050394       5.93093683      -0.02446228      -0.67891317       0.04401649      -1.50666388
Al       1.98935686       3.90911616       2.01278147       1.58387802      -0.35700264      -0.14114877
Al      -0.02197511       5.96314253       1.89856960       0.36960549       0.99024587       1.56122934
Al      -0.09954489       4.25884994       4.10286249      -0.06892815       2.24977106      -0.37837620
Al       1.93550002       6.11658556       3.94927391      -0.18630457      -0.56782707      -0.42577684
Al       1.83849653       3.73772628       5.99333276      -0.66559618      -1.30070741       0.32060622
Al       0.15727871       5.87528721       6.11290774       1.61679320       0.27882730       0.97344937
Al       3.95998510       0.08754271      -0.00512401      -0.24905569      -1.03130939       0.54688694
Al       5.84776604       2.09008832       0.10389268       0.43415573       0.66632789       0.16058724
Al       5.90828928       0.04893267       2.07961703       0.44852147       0.40482125       1.39682879
Al       3.87330115       1.92943658       1.87566846      -2.44841589       1.08491291      -0.15472470
Al       3.87921337       0.28196420       3.96176746       0.91971002      -0.34373079       0.51905075
Al       6.01428960       2.16587522       4.16541637      -1.09600514      -0.45290401      -0.08361407
Al       6.08581845      -0.07921594       5.96899607       0.54544339      -1.86905210      -0.07263384
Al       4.07889970       2.03313640       6.11835716       0.81042290       0.23496191       0.95747644
Al       3.95742668       4.02160292      -0.04400468      -0.38182190      -0.11206376      -0.36420485
Al       5.87331385       6.07994946       0.06191119       1.10019457      -0.81460096       0.76644629
Al       5.97418650       3.99343924       2.01194820      -0.36455878      -1.09378206      -0.53646021
Al       3.97507871       6.08505125       1.94502785      -1.36648765       0.49496548      -0.49522061
Al       3.90491085       3.89317006       3.99613233      -0.78126030      -0.92679938       1.16044621
Al       5.93838549       6.15815452       4.03298237      -0.51465393      -0.33953197      -0.44015466
Al       6.06521248       4.08328589       5.98500363      -0.15572431       0.86426334      -1.67072169
Al       3.83482859       5.97119996       5.97493141       0.04529924       0.22954583       0.50545470
32
Lattice="8.0 0.0 0.0 0.0 8.0 0.0 0.0 0.0 8.0" Properties=species:S:1:pos:R:3:momenta:R:3 "potential energy"=-105.56543931976472 "kinetic energy"=1.2685743257984352 pbc="T T T"
Al      -0.14373014       0.18305138       0.10658393      -0.25595039       0.52747544      -1.06617883
Al       1.87084823       1.87710538       0.06742536       0.19271221       0.20010165      -2.36816964
Al       1.94776679       0.07308103       1.88896366       0.70508229      -0.17946335       0.00890929
Al      -0.23936256       1.93752545       2.14192183      -0.09582517      -0.69051802       0.33384736
Al       0.02924446      -0.05502195       4.00269935      -0.27290487       0.78060001      -0.01087818
Al       1.87808273       1.99263402       4.02037926       0.11938072       0.82830830       0.22786117
Al       2.00324145      -0.04134560       5.96412025      -0.21762500       1.45862174      -0.35281755
Al      -0.14237365       1.79711926       6.08890710      -0.56069991       0.98766336       0.06854765
Al      -0.06254625       3.78897108       0.12321765       1.34622085      -1.02103946      -1.19160630
Al       1.89587677       5.94281370      -0.05897160       0.30399106       0.29814490      -0.52533491
Al       2.03771649       3.89048955       2.02068961       1.07212156      -0.24777216       0.35758092
Al       0.00288915       6.00934754       1.95777847       0.98423690       1.18001922       1.45217735
Al      -0.08937871       4.33460828       4.08806946       0.05776040       1.56920346      -0.84584849
Al       1.93222906       6.07932739       3.93418972       0.34597732      -1.34487002      -0.36328174
Al       1.81436783       3.68861965       6.01419592      -0.43528284      -1.07527670       0.66290222
Al       0.19594138       5.89744437       6.15206132       0.09267595       0.86487167       0.91115463
Al       3.96121217       0.04065348       0.01397944       0.17446194      -1.50041853       0.38200998
Al       5.87714218       2.10656197       0.10678062       0.78441340      -0.10819181      -0.01143041
Al       5.91893405       0.06492084       2.13435077       0.35274060       0.22992920       1.23445112
Al       3.77876786       1.98451895       1.88017090      -2.43267761       1.65747479       0.32713684
Al       3.90992344       0.25717410       3.99003738       0.75081507      -1.05151714       0.67077159
Al       5.97773542       2.13852612       4.14758173      -0.78102967      -1.18302402      -0.88767765
Al       6.09274274      -0.14654634       5.98713045      -0.02354016      -1.75552540       0.87221951
Al       4.10439559       2.03830093       6.13073366       0.54862274      -0.10994705      -0.11849072
Al       3.94017985       4.02340057      -0.04385397      -0.50481548       0.07874263       0.05932084
Al       5.91889641       6.04679812       0.07518656       0.92107188      -1.05471785       0.23639400
Al       5.96691073       3.97245791       1.99657538      -0.15175251      -0.30061244      -0.25698356
Al       3.91696256       6.10457225       1.93102077      -1.43845342       0.44500354      -0.42877540
Al       3.87282745       3.88349838       4.04846373      -1.01131680       0.25247604       1.44807518
Al       5.92357547       6.12614158       4.01113079      -0.11081946      -1.18001047      -0.78978547
Al       6.05033619       4.12634510       5.94340370      -0.61406627       1.15327955      -0.86180817
Al       3.84173340       5.98657561       5.99657825       0.15447470       0.29098891       0.82570735
32
Lattice="8.0 0.0 0.0 0.0 8.0 0.0 0.0 0.0 8.0" Properties=species:S:1:pos:R:3:momenta:R:3 "potential energy"=-105.53067573011165 "kinetic energy"=1.3461321866141613 pbc="T T T"
Al      -0.16200613       0.17588440       0.06245226      -0.81357448      -1.03160294      -1.05646713
Al       1.88298917       1.89245782      -0.03831557       0.25388155      -0.00316993      -2.60109876
Al       1.97100524       0.04542884       1.89632267       0.35537357      -0.96888099       0.44185041
Al      -0.23051976       1.91706289       2.16766927       0.57368796      -0.43170923       0.68752304
Al       0.02629783      -0.02491402       3.99688687      -0.18170256       0.63605839       0.03080146
Al       1.88331985       2.01708737       4.01510080       0.06832916       0.62353997      -0.32837678
Al       2.00515249       0.03323377       5.95547326      -0.05171784       2.20485629      -0.17696253
Al      -0.14826120       1.84148987       6.07503580       0.00163739       0.99693522      -0.67966687
Al      -0.01001153       3.76619066       0.07353370       1.41155523      -0.06547036      -1.19344899
Al       1.91239786       5.96137104      -0.06645708       0.62887986       0.27794983       0.39366525
Al       2.07470411       3.89873192       2.03233409       0.31840270       0.54280618       0.29412703
Al       0.04114510       6.05587816       2.01142337       0.65538963       1.41249123       1.20516789
Al      -0.06941771       4.37321595       4.04200785       0.53992817       0.50017798      -1.34387352
Al       1.96114034       6.02658226       3.91840863       1.13165926      -1.12151170       0.00601583