108
Lattice="12.149999999999999 0.0 0.0 0.0 12.149999999999999 0.0 0.0 0.0 12.149999999999999" Properties=species:S:1:pos:R:3 time=0.0 target_temperature=350 potential=-2.5687979520465434 kinetic_temperature=268.70210860298744 virial_stress=-0.04648511420871886 volume=1793.6133750000004 pbc="T T T"
Al      -0.02867498       0.06520534      -0.01543741
Al       2.11507393       1.97200846       0.04013050
Al       2.05246176       0.00240208       1.99442535
Al       0.01539530       2.00433684       2.02606620
Al       0.04341908      -0.02072459       4.03326982
Al       2.03650709       1.97810118       4.04496800
Al       1.99266672       0.00632035       6.15523527
Al      -0.06754953       1.92440842       6.09922488
Al       0.02731723       0.06489030       8.21217767
Al       2.07206199       2.06588160       8.05991502
Al       2.05864665       0.08256171      10.10034584
Al       0.03572858       2.04838473      10.22983316
Al       0.06647252       4.04405118       0.01033744
Al       1.96737007       6.11217139      -0.05237463
Al       2.10731737       4.01809135       2.08109124
Al      -0.02167737       6.03740203       2.11858371
Al      -0.01850152       3.94970940       4.12898134
Al       1.92902422       5.99262886       4.06530793
Al       2.01737851       4.06468494       6.08836093
Al      -0.00383806       6.05739013       6.14458882
Al      -0.04051056       4.00566498       8.09245514
Al       2.05780165       6.04936230       8.15984778
Al       2.05997700       4.03430353      10.10336943
Al       0.01875555       6.11848440      10.04888472
Al      -0.04779864       8.16174611       0.05844334
Al       1.98674566      10.17990271      -0.00961855
Al       1.95497738       8.10124983       2.06679868
Al       0.03838190      10.18777963       2.04826331
Al       0.00441572       8.07504509       4.09875354
Al       2.05506323      10.10128070       4.07610014
Al       2.02878011       8.06827772       6.13516129
Al      -0.00189794      10.14639981       6.09175542
Al       0.01425503       8.13606781       8.15569889
Al       2.06435047      10.08563725       8.11327893
Al       1.99811859       8.19144610      10.16074011
Al       0.02640632      10.15677147      10.10136792
Al       4.08725624      -0.02094970      -0.02905789
Al       6.05678851       2.11270924       0.00157894
Al       5.99068546      -0.06044890       2.07776865
Al       4.10036882       1.95165173       2.07763501
Al       3.98796632      -0.02664043       4.08256762
Al       6.05358463       1.99193523       4.12042701
Al       6.05197128      -0.06807961       6.10894317
Al       4.06346061       2.03989828       6.06021554
Al       4.00910428      -0.04551330       8.10979173
Al       6.06698749       2.05343632       8.03158179
Al       6.03570578       0.02940131      10.08266910
Al       4.08276784       2.05514460      10.12297745
Al       3.99993233       4.05141083      -0.00553034
Al       6.04374901       6.11782869      -0.05168446
Al       6.07473309       4.06693600       2.00498277
Al       4.00355324       6.05675782       2.03618390
Al       4.08939224       4.09083608       3.97956605
Al       6.07465589       6.05507349       4.03102344
Al       6.02945233       4.08963636       6.06393025
Al       4.05139209       6.05269363       6.00981020
Al       4.05613961       4.02189988       8.10257635
Al       6.10065064       6.02975598       8.13644995
Al       6.11895806       4.08502655      10.17105305
Al       4.05235776       6.11092660      10.09551426
Al       4.00676564       8.14956796      -0.00223933
Al       6.13034615      10.12372540      -0.00618298
Al       6.08704733       8.05167076       1.99401309
Al       3.95932792      10.16974551       2.06546081
Al       4.05321364       8.07407389       3.98218065
Al       6.04686538      10.05573892       4.02612073
Al       6.13384893       8.07973048       6.04622871
Al       4.05581352      10.03585797       6.10645402
Al       4.10443460       8.06858764       8.14652331
Al       6.04849654      10.16055893       8.10854209
Al       6.09570837       8.15659065      10.15265320
Al       4.08146475      10.10244719      10.14952237
Al       8.06989522      -0.00861385       0.00811915
Al      10.13807569       2.04778614      -0.02541696
Al      10.08429585       0.00360066       1.98751668
Al       8.09475108       2.03553304       2.00837145
Al       8.04371033      -0.10425468       3.98609484
Al      10.05037770       2.01113354       4.01769228
Al      10.11587015       0.02018480       6.00892811
Al       8.08034488       2.07725941       6.08714631
Al       8.16455629       0.01599521       7.95804347
Al      10.11550132       2.00598073       8.13095335
Al      10.10857280       0.01998932      10.13330327
Al       8.14397643       2.12533058      10.13509846
Al       8.11195577       4.08507428       0.00911312
Al      10.14269471       6.07924867      -0.02481100
Al      10.21337754       4.00634520       2.05924680
Al       8.13072376       6.09431865       1.94767261
Al       8.10299291       4.03264549       4.03466974
Al      10.11404793       6.03227312       4.06955860
Al      10.12079730       4.01806199       6.13895814
Al       8.17259526       6.00476168       6.04380573
Al       8.15758085       4.04226806       8.11902515
Al      10.10213768       6.13552966       8.07889316
Al      10.19358361       4.07166378      10.06414479
Al       8.10885844       6.09807177      10.10217564
Al       8.14804332       8.05393260       0.03538970
Al      10.14744533      10.16754289       0.01307236
Al      10.14641416       8.09961716       2.05197126
Al       8.12806535      10.13463644       2.01132279
Al       8.02921737       8.05381578       3.98883732
Al      10.04810497      10.11282969       3.95240903
Al      10.14893676       8.12686826       6.03099414
Al       8.08777540      10.04023947       5.99505467
Al       8.05673925       8.10818991       8.09719702
Al      10.10442284      10.15995698       8.08731422
Al      10.11163002       8.18051812      10.16387538
Al       8.08116973      10.15798710      10.10702013
108
Lattice="12.280767227897968 0.0 0.0 0.0 12.280767227897968 0.0 0.0 0.0 12.280767227897968" Properties=species:S:1:pos:R:3 time=0.4 target_temperature=375.19999999999976 potential=-2.5684840350733116 kinetic_temperature=357.9069294459498 virial_stress=0.0017824452514759298 volume=1852.1514639042457 pbc="T T T"
Al      12.28056139      12.30893726       0.08080746
Al       2.02944571       2.07987071      -0.02706257
Al       1.93623593      12.28477582       2.07856889
Al      12.26248972       2.07297855       2.05755862
Al      -0.00527777       0.02569667       4.12359714
Al       2.09343405       2.18085357       4.09539161
Al       2.11347772       0.04834141       6.00856423
Al       0.00548642       2.07953166       6.11816895
Al       0.01062481       0.05434328       8.22397568
Al       2.13755856       2.00150251       8.10204592
Al       2.09399069      12.17531077      10.20128191
Al       0.05200273       1.98798404      10.28333766
Al      12.24838205       4.14552646      -0.00074213
Al       2.09376094       6.14566771      12.29295192
Al       2.01779956       4.08212511       2.01509544
Al      12.19291515       6.09313207       2.01954070
Al      -0.11274144       4.13329094       4.15782777
Al       1.94462650       6.10110566       4.02473843
Al       2.00172182       4.11998125       6.20309682
Al       0.00810266       6.18292227       6.21623369
Al       0.03203245       4.04150949       8.21065057
Al       2.06154723       6.09405465       8.25918130
Al       2.01409235       4.08952097      10.21501121
Al      12.28330794       6.08378658      10.21275297
Al      12.27303067       8.15626333      -0.01272881
Al       2.00824310      10.25156372      12.23182686
Al       2.06229915       8.18281159       2.06836536
Al       0.00374299      10.24709893       2.04298936
Al      12.28498229       8.16507188       4.05074858
Al       2.01040819      10.15549525       4.12882473
Al       2.09269833       8.12050846       6.18009998
Al       0.04967811      10.23380372       6.16190774
Al       0.04977521       8.14083329       8.24185820
Al       2.05344537      10.21436093       8.15504575
Al       2.08190188       8.15738532      10.24074120
Al      12.26190338      10.17775724      10.15286242
Al       4.05365164      12.30198281      -0.08502626
Al       6.08859862       2.03841257      12.28574710
Al       6.08974466      12.32972869       2.10550743
Al       4.05043745       2.04399513       1.98607553
Al       4.06054958      12.38261517       4.13765846
Al       6.09936437       2.11276230       4.06003334
Al       6.17290481      -0.07255499       6.11336071
Al       4.17290678       2.10181501       6.14040656
Al       4.15400801      -0.01603746       8.17915934
Al       6.11660897       1.96514571       8.22459063
Al       6.10454119       0.01566431      10.26045323
Al       4.01113393       2.02706519      10.24490758
Al       4.10744506       4.05241442      12.22291902
Al       6.14833379       6.27359367       0.07876366
Al       6.15062664       4.09260770       1.94936801
Al       4.09906908       6.12588378       2.08712325
Al       4.15881704       4.12067726       4.01613238
Al       6.16272690       6.11123306       4.03190836
Al       6.14511677       4.12609148       6.13747409
Al       4.14798592       6.08173914       6.08308226
Al       4.13351048       4.06369173       8.16227422
Al       6.07135374       6.09691442       8.18382817
Al       6.13285034       4.22327228      10.31181193
Al       4.10523883       6.14275404      10.25592933
Al       4.10523390       8.21102658       0.03258099
Al       6.14365044      10.22583789      12.39078035
Al       6.09516375       8.19399861       2.10143746
Al       4.01025628      10.30280471       2.06757642
Al       4.11366344       8.09304923       4.07569399
Al       6.14791854      10.15961077       4.05076258
Al       6.17440522       8.16749564       6.18293337
Al       4.09902950      10.17203063       6.11711773
Al       4.11833020       8.17876944       8.18803567
Al       6.15807816      10.28529565       8.12495919
Al       6.18411732       8.23907594      10.14411113
Al       4.13578455      10.15644331      10.23544680
Al       8.23382042       0.02293575      12.26914450
Al      10.20591857       2.15726970      12.31509629
Al      10.30925887      12.30282589       2.10844605
Al       8.16170772       1.99073675       2.03328324
Al       8.24281938      12.28492235       4.01408741
Al      10.22183612       2.06994504       4.13441500
Al      10.26815180      12.22271252       6.17273858
Al       8.16778033       1.96662255       6.12528698
Al       8.23498106      -0.03217642       8.17951531
Al      10.16642521       2.00107567       8.13679667
Al      10.33216583       0.07470927      10.22454212
Al       8.18070836       2.03430213      10.24314855
Al       8.16650244       4.15333655      -0.07431346
Al      10.23536805       6.15740430      -0.08679186
Al      10.17325721       4.10055869       2.11109301
Al       8.18037817       6.17632443       1.96041510
Al       8.16099720       4.04884861       4.03101255
Al      10.13471015       6.10338614       4.17257517
Al      10.27911634       4.08911775       6.26409276
Al       8.22672657       6.17591650       6.24107598
Al       8.22385118       4.05691955       8.18143974
Al      10.28576980       6.19049719       8.15425781
Al      10.17812928       4.08865807      10.19908727
Al       8.16246295       6.16650667      10.23929823
Al       8.17416066       8.23476849      12.27530339
Al      10.23646383      10.32961920      12.35848344
Al      10.18056846       8.22294719       2.14168044
Al       8.25134865      10.14724929       2.11156584
Al       8.18442994       8.17377118       4.14408717
Al      10.27260476      10.19712845       4.09360850
Al      10.28332196       8.13540205       6.19686841
Al       8.18085050      10.20793714       6.10357919
Al       8.20703696       8.24272759       8.22318350
Al      10.27252079      10.23387440       8.14478045
Al      10.20569864       8.23020759      10.24520235
Al       8.23217724      10.22982219      10.18390396
108
Lattice="12.287465921139114 0.0 0.0 0.0 12.287465921139114 0.0 0.0 0.0 12.287465921139114" Properties=species:S:1:pos:R:3 time=0.8 target_temperature=400.3999999999995 potential=-2.562364881754409 kinetic_temperature=390.64660189893186 virial_stress=0.0023005251915860113 volume=1855.1839527638706 pbc="T T T"
Al      -0.01214393       0.04691115      12.27150003
Al       2.04115677       2.04401710      -0.01950859
Al       2.03012991      12.26892910       1.96131210
Al      12.32623302       2.01919593       2.10391912
Al      -0.00220716       0.11326395       4.19486258
Al       2.07163325       2.09416695       4.04167698
Al       2.09360817       0.04821252       6.17042727
Al      -0.07376466       2.10178848       6.16685998
Al      -0.07775673      12.28822088       8.17527593
Al       2.09514246       2.06526014       8.21500180
Al       2.02254063      12.23249022      10.13175235
Al      12.28272785       2.03690475      10.18169189
Al      12.30297980       4.10547085       0.01234521
Al       2.02189747       6.10446144      -0.02590609
Al       2.06397552       4.11077973       2.05832841
Al      12.32173291       6.19620023       2.04131897
Al      12.30803107       4.08332331       4.12533638
Al       2.02342870       6.12582344       4.22910405
Al       2.12761359       4.08511975       6.17755021
Al      12.31005638       6.12235227       6.18492304
Al      12.26019855       4.11750738       8.21537619
Al       2.07519065       6.24517871       8.27704320
Al       2.06812338       4.18429762      10.28688610
Al       0.03818525       6.22706184      10.26083574
Al      12.27139247       8.25676897      12.35676459
Al       2.02007756      10.19258345      12.27386392
Al       2.07797252       8.15584313       2.14858850
Al      12.17619179      10.21642658       2.10434319
Al      12.29250363       8.21895120       4.10813996
Al       2.03630954      10.28305129       4.15601269
Al       2.04185991       8.18397395       6.17082033
Al      12.25517288      10.22195884       6.17760671
Al      12.20374169       8.22770078       8.20318677
Al       2.01426877      10.26972554       8.27691515
Al       2.04747795       8.26530087      10.27195441
Al      12.21182912      10.26441701      10.26017262
Al       4.05746810      12.25020476      -0.11210411
Al       6.14469593       1.94037601      -0.01949179
Al       6.18120897       0.02041682       1.98071320
Al       4.15409333       2.10601736       2.02177975
Al       4.10652264      12.24793354       4.01818628
Al       6.15634296       2.05570555       4.12574507
Al       6.16889172      -0.04348828       6.08285157
Al       4.02577426       2.08992755       6.18190302
Al       4.18960609      12.20502461       8.12574305
Al       6.12684332       2.12230162       8.14470033
Al       6.12935078      -0.06047005      10.13523976
Al       4.19475695       1.99926909      10.19087685
Al       4.18927070       4.09826762      -0.01631115
Al       6.15159166       6.17404068       0.05842063
Al       6.17975448       4.01351941       2.07207472
Al       4.16142272       6.03774973       2.06408420
Al       4.17322082       4.07729283       4.10259035
Al       6.14544117       6.11526926       4.14313801
Al       6.14703662       4.12797786       6.26303516
Al       4.01492905       6.19244579       6.22817398
Al       4.09426445       4.13668681       8.31940068
Al       6.17811869       6.08796317       8.23863147
Al       6.16364737       4.05129773      10.23767862
Al       4.07101552       6.17438923      10.29809660
Al       4.08215718       8.19036069       0.05505038
Al       6.18126403      10.27438470      12.26828093
Al       6.22381897       8.27165027       2.05782985
Al       4.15741509      10.23096636       2.00165189
Al       4.04585718       8.22762661       4.04436451
Al       6.11317327      10.24869769       4.09444002
Al       6.16309698       8.17871457       6.05192435
Al       4.05152336      10.26936654       6.12197354
Al       4.18872317       8.22014998       8.21571787
Al       6.22568881      10.17513957       8.17899559
Al       6.10208613       8.14375674      10.25934652
Al       4.09554437      10.23680016      10.18807984
Al       8.26611113      12.26300673       0.02800177
Al      10.20633510       1.98852259      12.26334257
Al      10.26113921       0.01900943       2.08186922
Al       8.25696600       2.05608757       1.98239623
Al       8.10856522      -0.06664564       4.05098607
Al      10.21575737       2.07958823       4.10172248
Al      10.17389704       0.12245272       6.16154612
Al       8.17165163       2.11410788       6.04536851
Al       8.06115753       0.07537824       8.09093034
Al      10.19989204       1.98518079       8.26573380
Al      10.25532788      12.23550549      10.19360251
Al       8.18953964       1.97441321      10.26077272
Al       8.15482480       4.23097162      -0.01595883
Al      10.26451333       6.11774153      -0.04929680
Al      10.30162938       4.05632035       2.02911148
Al       8.24510998       6.19333453       2.01948574
Al       8.22553652       4.20286680       4.00198956
Al      10.28293958       6.23115954       4.09267896
Al      10.28133138       4.04139652       6.15876171
Al       8.22837201       6.11647516       6.14518375
Al       8.27124301       4.02735440       8.23367308
Al      10.22768119       6.10705453       8.13763320
Al      10.27506537       4.05152093      10.27962330
Al       8.25517308       6.05584574      10.16825080
Al       8.29162319       8.13813405      -0.03396825
Al      10.28736001      10.26830692      12.28030927
Al      10.22829716       8.20275401       2.01586606
Al       8.16563005      10.12839043       2.09419978
Al       8.15153867       8.19168712       4.07322089
Al      10.26061812      10.24796304       4.18366512
Al      10.22685769       8.19383528       6.12951631
Al       8.16553839      10.22892954       6.08402562
Al       8.11869371       8.15286581       8.14001257
Al      10.10912214      10.29188088       8.16188930
Al      10.26422378       8.18995792      10.18599549
Al       8.13954156      10.15192597      10.30343054
108
Lattice="12.288621957955597 0.0 0.0 0.0 12.288621957955597 0.0 0.0 0.0 12.288621957955597" Properties=species:S:1:pos:R:3 time=1.2 target_temperature=425.59999999999917 potential=-2.560032785110263 kinetic_temperature=404.2458985048025 virial_stress=0.0018260976830537254 volume=1855.7076236524315 pbc="T T T"
Al       0.02626236      -0.05969110       0.04011554
Al       2.08262623       2.02878714      12.36256096
Al       1.96869566      -0.01284940       2.03846074
Al      12.29180776       2.12852001       1.94281476
Al      -0.05213676       0.07938007       4.06280520
Al       2.13864752       2.01661394       4.09121859
Al       2.05195208      -0.04506592       6.19314661
Al      -0.09576703       2.04153746       6.13462943
Al      12.24126137      12.31101955       8.24105541
Al       2.01596369       2.01562082       8.09005193
Al       2.03322461       0.00626895      10.32461651
Al      12.42144264       2.06782954      10.26280968
Al      12.33670656       4.15341080       0.01272090
Al       1.97504758       6.17192466      12.32226822
Al       2.07809355       4.02749857       2.10999808
Al      12.30219736       6.21268204       2.01321456
Al      12.29642962       4.11318621       4.12664646
Al       2.06996841       6.10095212       4.18356694
Al       2.07827727       4.08313779       6.13825971
Al      12.29275048       6.15853405       6.17635265
Al      12.17867574       4.11665915       8.12543104
Al       2.01606827       6.16484704       8.17436113
Al       2.01330711       4.13468592      10.16273879
Al      -0.03944985       6.17850232      10.28157788
Al      12.32083042       8.13666611      -0.04065178
Al       1.99339941      10.18803547      12.26066881
Al       2.06259221       8.16555291       2.09174965
Al      12.26336030      10.18734056       2.04467965
Al      12.27987684       8.12617540       4.02423646
Al       1.97022308      10.32831943       4.10911665
Al       1.94277027       8.27758939       6.17509358
Al      12.27492518      10.29903521       6.09685548
Al      -0.03899132       8.19743338       8.16689336
Al       2.08718005      10.33811440       8.23530549
Al       1.97717921       8.18587533      10.17288629
Al       0.01855646      10.19298117      10.14852129
Al       4.10237006      -0.00141503      12.28900395
Al       6.19402140       1.98674049      12.31712428
Al       6.29357133      -0.03502149       2.12017059
Al       4.22931507       2.11648947       2.06305702
Al       4.14207496       0.01057790       4.00491603
Al       6.18706749       2.16840833       4.13402545
Al       6.11190679      12.30789340       6.08093789
Al       4.08086869       2.06030785       6.11853043
Al       4.12799433       0.04122673       8.24432070
Al       6.15207648       1.95254626       8.09786267
Al       6.13787674      12.21054460      10.28118615
Al       4.06608074       2.02125542      10.31979745
Al       4.09058514       4.16135097       0.01991399
Al       6.18443347       6.10102736      12.16998846
Al       6.17966352       4.17107100       1.97406674
Al       4.05621349       6.05163507       2.14040368
Al       4.10466421       4.13943261       4.12756373
Al       6.11132073       6.17266888       4.24808207
Al       6.17957417       4.12927323       6.22930755
Al       4.07255104       6.10836663       6.25505647
Al       4.03121681       4.02652890       8.19476346
Al       6.17414488       6.14418005       8.18622732
Al       6.09104204       4.07280869      10.18598071
Al       4.12880569       6.09316970      10.17107195
Al       4.04947788       8.02780490      -0.02193970
Al       6.02520321      10.20819275      12.34567020
Al       6.11205497       8.21133734       2.11367369
Al       3.98572938      10.18455646       2.04466848
Al       4.09558079       8.19379166       4.13423763
Al       6.08842061      10.17800888       4.16826901
Al       6.17917361       8.22867382       6.13930737
Al       4.14230423      10.25656334       6.20902567
Al       4.07235102       8.20690864       8.20856403
Al       6.13224839      10.24041093       8.16975660
Al       6.17514980       8.18797219      10.17139512
Al       4.00155939      10.23047088      10.25158772
Al       8.26233976      -0.08639246      -0.01345318
Al      10.28131814       2.08804581      12.24359157
Al      10.24094703      -0.00330226       2.03896618
Al       8.25005953       2.11126685       2.01467510
Al       8.27778370      12.30673973       4.10154062
Al      10.16722852       1.98958766       4.08572750
Al      10.27555290      12.37779681       6.16011124
Al       8.17716522       2.11620164       6.08897263
Al       8.20390936      12.39159181       8.11441221
Al      10.29086439       2.09758854       8.12207015
Al      10.25906522       0.04313494      10.32846719
Al       8.23658282       2.06142303      10.11416288
Al       8.18186315       4.05671006      12.17427442
Al      10.23836598       6.17276999      12.33331611
Al      10.26525570       4.14369829       2.14026505
Al       8.12562417       6.16309620       2.00102709
Al       8.21562485       4.18790767       4.07326815
Al      10.33603574       6.12767805       4.09567621
Al      10.18753823       4.10154975       6.17134625
Al       8.23607062       6.13237563       6.19596543
Al       8.16089743       4.05528548       8.22371860
Al      10.17882508       6.18617909       8.24727488
Al      10.30398582       4.06115429      10.22209791
Al       8.30372179       6.11984273      10.27216765
Al       8.13857546       8.18694520      12.27750770
Al      10.32961783      10.22043964      -0.08136294
Al      10.23068544       8.20758829       2.05627918
Al       8.21015298      10.12987637       2.08460735
Al       8.33380603       8.13577184       4.10767576
Al      10.26485141      10.20476302       4.17294761
Al      10.28381080       8.13747265       6.17478804
Al       8.29126496      10.22099140       6.14500567
Al       8.17614890       8.23879657       8.16826566
Al      10.20331709      10.28632660       8.17545621
Al      10.20632437       8.23075604      10.14945523
Al       8.19524310      10.29107521      10.18232713
108
Lattice="12.29159420193227 0.0 0.0 0.0 12.29159420193227 0.0 0.0 0.0 12.29159420193227" Properties=species:S:1:pos:R:3 time=1.6 target_temperature=450.79999999999876 potential=-2.5554248972515925 kinetic_temperature=413.63860364372243 virial_stress=0.001523914709647857 volume=1857.0544670966465 pbc="T T T"
Al       0.10104043       0.01386845       0.01370499
Al       2.01780669       2.13206419      -0.09000481
Al       2.07077856      -0.07522898       2.11442199
Al      12.27427105       2.05632131       2.13708045
Al      -0.01077691      12.24501512       4.11540066
Al       2.07334702       2.00870732       4.13045391
Al       1.99690608      12.22117710       6.22505564
Al      -0.01734328       2.06986443       6.15442263
Al      -0.06151847      12.21441594       8.19486644
Al       2.02780562       2.05716185       8.14786827
Al       2.05602545      -0.04361308      10.22257268
Al      12.22074803       1.98042910      10.13903417
Al      -0.12931455       4.09404801       0.01925032
Al       2.02043389       6.13521591      12.28802050
Al       1.98233592       4.06173930       1.97606628
Al       0.00524234       6.09982745       1.98258360
Al       0.05129578       4.05079458       4.07619825
Al       2.08220290       6.18466615       4.07545618
Al       1.97394739       4.07100695       6.19862505
Al      12.40362526       6.19983145       6.22296643
Al       0.01895976       4.13188267       8.25763505
Al       1.91672669       6.21452554       8.25733950
Al       1.86479363       4.16713618      10.23624909
Al      -0.12509530       6.21507673      10.23157602
Al      -0.05501150       8.23326415      12.29036310
Al       2.04215593      10.25983241       0.06455410
Al       1.98913316       8.18778555       2.15072685
Al      12.30175414      10.20419511       2.03479180
Al      12.26678398       8.22454826       4.08886956
Al       2.16396498      10.26353294       4.15684451
Al       2.03333095       8.08534088       6.14092751
Al       0.17257904      10.13088724       6.15697068
Al      12.22985370       8.30181851       8.28332386
Al       2.11847343      10.29065015       8.22660342
Al       2.04419994       8.23587270      10.31940937
Al      12.25101307      10.30127207      10.30040289
Al       4.09066726       0.04902426      -0.01460871
Al       6.04227581       2.14729984      12.22589682
Al       6.18158681       0.10215214       1.93327260
Al       4.08303668       2.07783385       1.99402574
Al       4.13015052      12.23614307       4.12861137
Al       6.26971863       2.05387806       4.09943312
Al       6.17530169      12.28040017       6.01955458
Al       4.06795574       1.99415952       6.13952519
Al       4.16284247      12.33610315       8.22158711
Al       6.11447662       2.08210681       8.09717164
Al       6.11592915      12.31134726      10.26862040
Al       4.06386928       2.09500752      10.13550124
Al       4.02728421       4.10989470      -0.08687817
Al       6.19944779       6.18668224       0.02627955
Al       6.19341217       4.12747701       2.03076747
Al       4.03871966       6.10515542       2.00880886
Al       3.98919759       4.05722665       4.08856982
Al       6.06982896       6.14825840       3.97508037
Al       6.13190448       4.13763024       6.14247008
Al       4.01499861       6.09932235       6.23385191
Al       3.93860286       4.18016497       8.22941161
Al       6.14384692       6.16366152       8.15024786
Al       6.17140291       4.11621432      10.15063499
Al       4.02811490       6.16444788      10.20076688
Al       4.07354975       8.16505473       0.02755765
Al       6.18192391      10.33713876      12.24918656
Al       6.14198067       8.19442541       1.97932729
Al       4.17927316      10.23440433       2.08276138
Al       4.08703989       8.24539490       4.05373957
Al       6.25016507      10.22029244       4.06134183
Al       6.17361709       8.23761108       6.05783665
Al       4.12360184      10.28111944       6.11504639
Al       4.09411820       8.19915783       8.18470850
Al       6.17144796      10.31711142       8.33046578
Al       6.13493858       8.17555381      10.25830358
Al       4.10918069      10.23219334      10.35728806
Al       8.23503287       0.01220461      -0.03925280
Al      10.31858715       2.00373786      12.31621782
Al      10.27674190       0.00137203       2.14009491
Al       8.17241632       2.00044088       2.07026268
Al       8.26553794      -0.07079998       4.09658398
Al      10.21977183       2.05392062       4.15905980
Al      10.29419468      12.15043757       6.16567956
Al       8.28067505       1.94572542       6.15260847
Al       8.09814931      12.31039947       8.09205023
Al      10.22274471       2.09766183       8.17284989
Al      10.16390516       0.08108022      10.24062525
Al       8.15144586       1.95283966      10.25472038
Al       8.21178029       3.97832792      12.31199137
Al      10.22179523       6.11350174       0.08630087
Al      10.23052079       4.02981703       2.08465569
Al       8.31375055       6.14270577       2.03498779
Al       8.12466608       4.13551425       4.10452541
Al      10.34501881       6.14495320       4.03149176
Al      10.27189667       4.14404355       6.14982973
Al       8.17655965       6.15588097       6.11013970
Al       8.16038849       4.15019192       8.19464235
Al      10.24316649       6.16662605       8.24677514