108
Lattice="12.149999999999999 0.0 0.0 0.0 12.149999999999999 0.0 0.0 0.0 12.149999999999999" Properties=species:S:1:pos:R:3 time=0.0 target_temperature=350 potential=-2.5749593589550583 kinetic_temperature=321.0178844434666 virial_stress=-0.044563859285305235 volume=1793.6133750000004 pbc="T T T"
Al       0.00479653      -0.01241859      -0.02750361
Al       2.05867430       2.01985267      -0.00587125
Al       2.04684763      -0.04022230       2.05154193
Al       0.04425006       1.99174204       1.94891869
Al      -0.03405218       0.01897206       4.05410594
Al       1.95204313       1.98828468       3.99265175
Al       1.96102902      -0.03504215       6.05174386
Al       0.00387057       1.98311492       6.07689653
Al      -0.00194062      -0.04179469       8.15353540
Al       2.02070906       2.01975945       8.09349032
Al       2.12311081       0.04081025      10.13553296
Al      -0.02437342       2.00229859      10.16280006
Al      -0.08040855       4.03829790       0.01057458
Al       1.98562006       6.12039880       0.05774900
Al       2.00099651       4.12002371       1.99161427
Al      -0.03324192       6.06448931       2.07831806
Al       0.05570695       4.05106199       4.00406990
Al       2.03120319       6.12326544       4.11930282
Al       2.07833951       3.94953558       6.02499340
Al      -0.00186248       6.06715994       6.09145371
Al       0.04042977       4.01069877       8.13216531
Al       1.96342592       6.08564295       8.06723941
Al       1.97502120       4.06445880      10.14134678
Al       0.02772503       6.05636666      10.11078136
Al      -0.02295003       8.05791667       0.01662146
Al       2.00197274      10.06873565      -0.03080516
Al       2.04064180       8.11176463       2.02582580
Al       0.01443641      10.03292907       2.03800338
Al       0.02354288       8.07749184       3.99648272
Al       2.03576567      10.18291568       4.07998282
Al       1.94023351       8.10577759       6.12051268
Al       0.00285520      10.14664337       6.06535955
Al      -0.01915346       8.15522385       8.09264626
Al       2.05162205      10.13412300       8.09857071
Al       2.02140058       8.06621270      10.14420750
Al       0.01646606      10.10319015      10.09967956
Al       4.13314273      -0.09458657      -0.03942754
Al       6.09427441       1.99023148      -0.00593917
Al       6.04544795       0.09126300       2.00654375
Al       4.00848101       2.05706542       2.01776510
Al       4.05497235       0.06433251       4.04759544
Al       6.03552115       2.07927771       4.03252332
Al       6.08135015       0.02042804       6.02932421
Al       4.01663639       1.97249353       6.06414777
Al       4.09521297      -0.02728172       8.06246737
Al       6.03443644       2.01440495       8.03735503
Al       6.10130074      -0.01192658      10.07488859
Al       4.11052360       2.00019040      10.09093992
Al       4.03043099       3.96742731      -0.04783861
Al       6.10597181       6.10517807       0.04618649
Al       6.06651701       4.08354423       1.96945551
Al       4.09114810       6.00116017       1.98707791
Al       4.01493668       4.09538851       4.00004682
Al       6.05169023       6.06706196       4.01218100
Al       6.08808299       4.09190950       6.10730878
Al       3.99995989       6.07737657       6.04912355
Al       4.07903885       4.09520707       8.06689566
Al       6.02012531       6.11832947       8.09815411
Al       6.06818820       4.11044139      10.10924779
Al       3.96514669       6.10454691      10.11622394
Al       4.00860363       8.14326459       0.01845068
Al       6.03222905      10.07284895       0.05090003
Al       6.06053249       8.17011718       2.07229308
Al       4.02905149      10.11358563       2.04273653
Al       4.07008102       8.11830697       4.06374171
Al       6.07612004      10.16946929       4.10305369
Al       6.07548395       8.06982961       6.04287116
Al       4.03957466      10.09211545       6.06677460
Al       3.93949976       8.06012410       8.06868923
Al       6.02243989      10.03688562       8.03244432
Al       6.06086212       8.07239808      10.16807421
Al       4.10109267      10.07427614      10.06703547
Al       8.07421770      -0.07545728       0.06513484
Al      10.05410568       2.02466077       0.03052968
Al      10.15427189      -0.00163144       2.00652065
Al       8.06182293       2.08969764       2.11339821
Al       8.10405305       0.10286035       4.04572493
Al      10.14887787       2.06389275       4.01473300
Al      10.15571048      -0.00385167       6.10350652
Al       8.11325517       2.05997770       6.03492154
Al       8.09837153      -0.05651991       8.08300208
Al      10.12419646       1.99916976       8.13194142
Al      10.13400350      -0.02364629      10.16724455
Al       8.08915648       2.01572809      10.14873383
Al       8.13733349       4.09603700       0.01859116
Al      10.16760337       6.04409637       0.02720422
Al      10.10784319       4.03031504       2.10856445
Al       8.12466835       6.13344813       2.08963973
Al       8.10262638       4.08405061       4.02725645
Al      10.07583657       6.03764587       4.06733135
Al      10.16257102       4.00998274       6.04414615
Al       8.05574903       6.10128275       6.07220884
Al       8.13858260       4.06505807       8.11354147
Al      10.14845062       6.09815190       8.13627469
Al      10.08944913       4.05816320      10.15296966
Al       8.11409056       6.06524452      10.14350778
Al       8.13673896       8.11852632       0.01701833
Al      10.18707015      10.10390481       0.03165726
Al      10.11914683       8.15843971       2.02284820
Al       8.12049113      10.13707121       2.04784663
Al       8.09189083       8.09248127       4.06148526
Al      10.16000669      10.14630684       4.03839457
Al      10.07009219       8.09220328       6.04079091
Al       8.09928694      10.09522855       6.06546855
Al       8.12495670       8.13843015       8.08057192
Al      10.13386848      10.13542382       8.10805726
Al      10.11455629       8.09479751      10.14333356
Al       8.06345615      10.13274761      10.10247448
108
Lattice="12.28422477295439 0.0 0.0 0.0 12.28422477295439 0.0 0.0 0.0 12.28422477295439" Properties=species:S:1:pos:R:3 time=1.6 target_temperature=375.20000000000067 potential=-2.5682382188633435 kinetic_temperature=386.9670171215681 virial_stress=0.002915718276685839 volume=1853.7162766274118 pbc="T T T"
Al      12.24049851      12.34980383      12.23965528
Al       2.05587882       2.06653611       0.03006321
Al       2.06886461       0.10000338       2.07088873
Al      12.26055022       2.07925352       2.02520159
Al      12.37584310      12.17410392       4.15715845
Al       2.10442210       2.03454693       4.13343787
Al       2.10930044      12.32074574       6.13650800
Al      12.22113774       2.00662173       6.10536807
Al      -0.03276618       0.01218057       8.20831897
Al       2.03245019       2.09813403       8.17627229
Al       1.99901414       0.07331902      10.19543138
Al      12.24969472       2.06027514      10.23870031
Al      -0.06403520       4.13704077      -0.00221606
Al       2.07855168       6.05098736      12.29316630
Al       2.00243090       4.13574094       2.08950107
Al      12.22670794       6.15659421       2.06612597
Al      12.27343931       4.12503934       4.13527813
Al       1.98921809       6.12292358       4.10319270
Al       1.98184489       4.09379415       6.13833383
Al      -0.06736629       6.21046021       6.12430577
Al      12.26849016       4.11904978       8.16169440
Al       2.11956229       6.20054045       8.19013695
Al       1.96042182       4.02454063      10.22990516
Al       0.14529387       6.20888218      10.30091281
Al      12.33161735       8.18160476      -0.02198403
Al       2.08048307      10.28267461       0.02577629
Al       1.99469440       8.14924179       2.09089123
Al      12.32511200      10.16073994       1.99628026
Al      -0.02312257       8.28084359       4.17959985
Al       2.13571428      10.20620994       4.12896586
Al       2.12642409       8.17080640       6.15311053
Al       0.01305781      10.16657859       6.21110427
Al      12.33943208       8.12545454       8.23910658
Al       2.02081053      10.23297333       8.22702575
Al       2.07256302       8.23730530      10.30067270
Al      12.28784297      10.27710596      10.33279452
Al       4.17710287       0.04593470      12.27281952
Al       6.15575498       2.00148578      -0.05506103
Al       6.14267115      12.26470985       2.05850280
Al       4.13887410       2.07137406       2.09374476
Al       4.11719504      12.33953473       4.16586932
Al       6.24917435       1.98551979       4.11013412
Al       6.18108205      -0.07357033       6.17129510
Al       4.06307936       2.11504231       6.22598501
Al       4.11874579       0.03877860       8.19567940
Al       6.25975704       2.16522967       8.17697784
Al       6.14693951       0.03109807      10.21713691
Al       4.06052819       2.06565546      10.17253461
Al       4.08994143       4.14103240      -0.07838783
Al       6.10421684       6.19647288      12.27468960
Al       6.21811991       4.07104133       2.03384085
Al       4.09093516       6.14987807       2.03952094
Al       4.03057247       4.10968606       4.04993820
Al       6.07891125       6.08191563       4.06702619
Al       6.16245541       4.07136191       6.05815057
Al       4.01052721       6.13756614       6.08880352
Al       4.06337853       4.16581157       8.19148712
Al       6.13842522       6.12825836       8.17242918
Al       6.11923167       4.05279106      10.28690300
Al       4.08749489       6.14024367      10.24865080
Al       4.08464786       8.27381467      12.25851274
Al       6.17910609      10.26289312      12.30824812
Al       6.22632059       8.19406866       2.00428431
Al       4.05613161      10.22366602       2.06550774
Al       4.10215961       8.23406455       4.11227976
Al       6.17560596      10.26879089       4.06932980
Al       6.13709231       8.15777541       6.10944228
Al       4.15114719      10.29038668       6.13058486
Al       4.13206168       8.20059158       8.12670271
Al       6.06240115      10.30262001       8.30084643
Al       6.14758457       8.18147362      10.22163597
Al       4.07076220      10.26032044      10.20957554
Al       8.17207844       0.07450656      -0.04973787
Al      10.21057031       2.04837059       0.04520516
Al      10.28014658      -0.08007006       1.98312951
Al       8.22078517       1.90353517       2.07299310
Al       8.23808866      12.22363014       4.12891751
Al      10.27176639       1.95446841       4.13036156
Al      10.25105299      -0.04422234       6.16579010
Al       8.31519094       1.97381728       6.11415041
Al       8.15243727       0.01076050       8.19906141
Al      10.20515379       2.07998709       8.17064154
Al      10.19687599      -0.04282552      10.20671945
Al       8.26089438       2.07445898      10.20576218
Al       8.15197205       4.09692117      12.30701488
Al      10.18599888       6.04594000      12.18377499
Al      10.28734001       4.04522452       2.09792688
Al       8.22140406       6.11414341       2.05594872
Al       8.15064018       4.04147193       4.10619607
Al      10.26490938       6.24236745       4.08950608
Al      10.24944795       4.07014270       6.14949905
Al       8.12143177       6.19827947       6.05811771
Al       8.19543264       4.12506966       8.24798453
Al      10.18811374       6.16174039       8.22247524
Al      10.25049056       4.08784675      10.19691295
Al       8.12915971       6.13007455      10.24437478
Al       8.20213190       8.12033287      12.32671897
Al      10.30814873      10.26817622      -0.08719533
Al      10.26387194       8.18467117       1.99221191
Al       8.26614805      10.25373880       1.94515696
Al       8.15639598       8.17178730       4.04067632
Al      10.23149566      10.18501322       4.18677117
Al      10.25887048       8.11383193       6.16637478
Al       8.13819943      10.17991191       6.18395285
Al       8.14965053       8.17137872       8.14560421
Al      10.22689367      10.16886203       8.22914915
Al      10.23283475       8.13951856      10.28528054
Al       8.12896534      10.24391891      10.28035790
108
Lattice="12.288454266197608 0.0 0.0 0.0 12.288454266197608 0.0 0.0 0.0 12.288454266197608" Properties=species:S:1:pos:R:3 time=3.2 target_temperature=400.4000000000014 potential=-2.5655530907728767 kinetic_temperature=447.30170014814564 virial_stress=0.0034519773261646354 volume=1855.6316551764742 pbc="T T T"
Al       0.01609250       0.04880840      12.31253938
Al       2.11431467       2.08340577      12.34966109
Al       2.12759321      12.26793840       2.14457631
Al      12.32973074       2.01620352       2.08456797
Al      -0.01396555      12.29766250       4.11124049
Al       2.08946872       2.06752096       4.10098760
Al       2.09522352      12.27341592       6.21480069
Al      -0.01972520       1.97396940       6.17058901
Al       0.10777066      12.37459020       8.20526702
Al       2.08856589       2.07524225       8.16812637
Al       2.14601218      12.34649274      10.28092624
Al       0.04731313       2.07470774      10.26531384
Al      12.30341071       4.07510199       0.04221394
Al       1.88449737       6.12908965      12.36059310
Al       1.99531203       4.09828035       2.02000351
Al      12.24118823       6.19633376       2.05444569
Al       0.01287373       4.06918335       4.04355419
Al       2.11213745       6.21952509       4.08648400
Al       2.06534518       4.11256629       6.16165427
Al      12.27340738       6.14738199       6.16083972
Al      -0.07850049       4.10766540       8.24079378
Al       2.10531120       6.15358151       8.19023194
Al       2.04550227       4.10343978      10.16853601
Al      12.27141910       6.07435961      10.22198637
Al      12.22320278       8.12366201      -0.02729423
Al       2.00241310      10.27409214      12.25419247
Al       1.98549625       8.18458842       2.13233517
Al       0.04281254      10.25038458       1.98521825
Al      12.21390059       8.13306472       4.08111682
Al       1.97172339      10.19774110       4.06139905
Al       2.06314073       8.20923292       6.10997159
Al      -0.02046900      10.16919726       6.19751334
Al      12.22189876       8.17955142       8.20827631
Al       2.05816500      10.23696782       8.19294532
Al       1.97692154       8.08298861      10.26781790
Al      12.30149320      10.12020212      10.33110094
Al       4.15467027      12.26316771      12.21878259
Al       6.22266900       2.04660775      12.33166887
Al       6.17056299      12.25756296       2.17696985
Al       4.17681250       2.04026104       2.04913012
Al       4.15585337      12.33802364       4.13206520
Al       6.14891627       2.05123537       4.11012821
Al       6.21926851      12.24389918       6.06901217
Al       4.16669996       2.06443705       6.06806813
Al       4.13683534      12.36069032       8.13716940
Al       6.15772163       2.04392037       8.14554529
Al       6.17037116       0.05360186      10.26941175
Al       4.14000624       2.03889757      10.28038003
Al       4.03373306       4.13338276      12.21742045
Al       6.06897137       6.09157140      -0.03112417
Al       6.18267095       4.09370453       2.02455159
Al       4.11348186       6.15044333       2.11496093
Al       4.12120974       4.07417751       4.09406249
Al       6.08530028       6.21506122       4.07567433
Al       6.18599542       4.11025281       6.14072972
Al       4.12100641       6.21693631       6.07811301
Al       4.14421302       4.02144266       8.16910419
Al       6.12471104       6.22254396       8.24849642
Al       6.14030653       4.09052739      10.21295940
Al       3.97916073       6.14132243      10.23859456
Al       4.00188802       8.17965844      -0.00845099
Al       6.07026420      10.29482472      -0.00902090
Al       6.15880203       8.22199075       2.03159839
Al       4.09847157      10.28993966       1.97454087
Al       4.07262169       8.23690531       4.07824900
Al       6.18066168      10.26831999       4.07379413
Al       6.19136968       8.26892093       6.16942148
Al       4.10999911      10.25660373       6.06296067
Al       4.09025958       8.24259193       8.14717909
Al       6.16374718      10.18095401       8.20141296
Al       6.14943048       8.13851809      10.29416007
Al       4.06669589      10.14407581      10.25614147
Al       8.19517505      -0.04553669      12.31634785
Al      10.14758153       2.10234148       0.06093349
Al      10.23982529      12.30422197       2.07320597
Al       8.18113625       2.00665979       2.08971861
Al       8.23830823      12.32180101       4.16178878
Al      10.25173646       2.00827321       4.17550236
Al      10.29630664      12.24952861       6.20330886
Al       8.22697469       2.10553202       6.16892120
Al       8.19145087       0.00032631       8.18328836
Al      10.21658401       2.05202299       8.17470267
Al      10.23368097      -0.07633687      10.21877542
Al       8.18797924       1.97855508      10.25279691
Al       8.19018429       4.08825528      -0.03925007
Al      10.21197807       6.15289103      12.26850259
Al      10.22477485       4.06757981       2.06582328
Al       8.16611066       6.15788578       2.00809324
Al       8.23436044       4.13375594       4.15387357
Al      10.17048027       6.00287449       4.13632502
Al      10.29845153       4.10373380       6.24393719
Al       8.12240022       6.15965204       6.21463394
Al       8.12651504       4.08055157       8.13509039
Al      10.21690649       6.15478318       8.18218366
Al      10.22725577       4.03012592      10.15626556
Al       8.14253573       6.13644737      10.14637652
Al       8.23196478       8.20701251      12.30597952
Al      10.25618726      10.28084923      12.34816684
Al      10.21857438       8.16840106       2.05549858
Al       8.15477990      10.21059140       2.02921766
Al       8.29055501       8.18919138       4.14718499
Al      10.33306511      10.20706395       4.01651838
Al      10.29284593       8.12454755       6.13457121
Al       8.25750332      10.25031302       6.12907369
Al       8.25223039       8.19784315       8.15530631
Al      10.28149145      10.20905519       8.26960930
Al      10.26468166       8.10592454      10.27516256
Al       8.18861724      10.21932109      10.22739734
108
Lattice="12.28878986894466 0.0 0.0 0.0 12.28878986894466 0.0 0.0 0.0 12.28878986894466" Properties=species:S:1:pos:R:3 time=4.8 target_temperature=425.6000000000022 potential=-2.5615955557573638 kinetic_temperature=420.2096617706948 virial_stress=0.0024768568586547874 volume=1855.7836935228809 pbc="T T T"
Al      -0.04160340       0.03751881       0.06348217
Al       2.03142118       2.08441761       0.00646321
Al       2.10199093      12.35835311       2.07443464
Al       0.02906926       2.05032748       2.04467972
Al      -0.00474370      12.36831130       4.11339579
Al       2.01030002       2.03887898       4.13954380
Al       2.08495275      12.22469063       6.19309567
Al      12.26277709       2.06126937       6.11811501
Al      12.32552707      12.23176773       8.27773077
Al       2.01865210       2.01623228       8.20076593
Al       2.07419229       0.01163133      10.22320599
Al      -0.00779591       1.88090752      10.20071549
Al      12.35904724       4.05088136      12.23361351
Al       2.04572078       6.07869509       0.00331824
Al       2.03705439       4.08858517       2.12312199
Al      12.28690999       6.15475214       2.07871665
Al      12.31569626       4.08910900       4.07082331
Al       1.98763179       6.14654277       4.10523708
Al       2.06778998       4.11278219       6.22756984
Al       0.01138411       6.06827820       6.18493171
Al      12.26820101       4.03635756       8.21947142
Al       2.09409454       6.18685875       8.20454283
Al       2.05140028       3.99917292      10.20647812
Al      12.40886925       6.05623156      10.17381015
Al      12.42421156       8.16540507      12.26176780
Al       2.10675475      10.23170246       0.09308982
Al       2.09900532       8.16066753       2.16555052
Al       0.04572514      10.32300042       1.99218586
Al      -0.03278531       8.14215476       4.08323782
Al       1.98189912      10.17472517       4.02021063
Al       2.06597541       8.16952774       6.06488678
Al      12.28664494      10.20341731       6.22627055
Al      12.29355931       8.18718476       8.26730467
Al       2.09315705      10.22151891       8.25484059
Al       2.11601353       8.19581449      10.27710489
Al      12.36396249      10.26636989      10.19416860
Al       4.03571107      12.26027861      12.22687142
Al       6.06385763       2.06445429       0.00783380
Al       6.12890090      -0.01226649       2.08190872
Al       4.13704887       2.08107066       2.09017497
Al       4.10208094       0.00223243       4.14126101
Al       6.11052294       2.00670534       4.12913703
Al       6.10507488      12.27789061       6.22385458
Al       4.03096590       2.03336591       6.10770306
Al       4.11377468      -0.04617914       8.25851357
Al       6.12957070       2.10604180       8.11995398
Al       6.21719722       0.08532841      10.25579127
Al       4.12478372       2.04531484      10.22748108
Al       4.09309490       4.11160511      12.41136717
Al       6.12888552       6.18882936       0.08602104
Al       6.16709413       4.14226207       2.09994472
Al       4.01739737       6.11683561       2.16506245
Al       4.11254401       4.09642310       4.12505035
Al       6.20204414       6.14700711       4.09459773
Al       6.09079700       4.12499930       6.07860550
Al       4.13265321       6.22226337       6.13835704
Al       4.02335391       4.07220517       8.13159162
Al       6.16172060       6.13835896       8.21567837
Al       6.15673808       4.08979125      10.21718634
Al       4.11634526       6.08914412      10.21671251
Al       4.08515059       8.11384550      12.36506769
Al       6.06161270      10.30901430      12.34306978
Al       6.15051612       8.22121280       2.13833622
Al       4.11054237      10.16813600       2.07520823
Al       4.20819408       8.23566997       4.14657688
Al       6.16473060      10.28961882       4.08484396
Al       6.22708367       8.30437857       6.15093990
Al       4.10951920      10.20077161       6.20934662
Al       4.08389638       8.20597440       8.21714601
Al       6.08734673      10.24241692       8.21887119
Al       6.08922029       8.15060333      10.30213738
Al       4.05673019      10.22422722      10.28436715
Al       8.15225038      12.23555431       0.06840415
Al      10.15696742       2.04473066      12.18741203
Al      10.18580257      12.28232011       1.92937938
Al       8.15848578       2.03349463       2.02754836
Al       8.24411305      12.29654099       4.12262982
Al      10.25730223       2.09292596       3.92318409
Al      10.34546684      12.31435022       6.10625460
Al       8.20789626       2.04413735       6.09556191
Al       8.19823255      12.23279229       8.17097606
Al      10.27770517       2.04413106       8.26999841
Al      10.19856381      -0.03153217      10.18457191
Al       8.17444491       1.97839336      10.28813149
Al       8.07981854       4.08082683       0.05171449
Al      10.26665099       6.12701596      -0.01627314
Al      10.26669763       3.97942369       1.95712841
Al       8.22985483       6.27041292       2.07493750
Al       8.22664335       4.10777160       4.07737628
Al      10.23426265       6.02720685       3.96029542
Al      10.23247292       4.15540283       6.14133002
Al       8.16558673       6.16618109       6.13490879
Al       8.28219318       4.04796637       8.22868995
Al      10.23257050       6.13258888       8.12118201
Al      10.21913082       4.13693583      10.25054018
Al       8.19821409       6.07490486      10.20290623
Al       8.12193349       8.23744574      12.36586723
Al      10.31477773      10.19030489      12.20726145
Al      10.30774793       8.25794400       1.96792548
Al       8.23716298      10.32566021       2.05749153
Al       8.20424139       8.16680045       4.03429932
Al      10.35923540      10.33341674       4.11167417
Al      10.26361165       8.22511133       6.04487254
Al       8.28352415      10.26969884       6.06749110
Al       8.21830244       8.17501133       8.26744506
Al      10.22011316      10.22292624       8.19446696
Al      10.20684009       8.10023747      10.29864148
Al       8.12439283      10.23845963      10.30489155
108
Lattice="12.2968285805943 0.0 0.0 0.0 12.2968285805943 0.0 0.0 0.0 12.2968285805943" Properties=species:S:1:pos:R:3 time=6.4 target_temperature=450.8000000000029 potential=-2.5529267918490954 kinetic_temperature=466.4204040499887 virial_stress=0.002505920522158544 volume=1859.427958978987 pbc="T T T"
Al      12.30519423      12.31229730      -0.03187304
Al       2.04744470       2.04596681      12.28587794
Al       2.14057727       0.01126682       1.98295414
Al      12.35581797       2.12362970       2.03170703
Al       0.09670527      12.26163859       3.96685836
Al       2.07704837       2.05998649       4.09573171
Al       2.00344941      12.26903069       6.09376626
Al      12.30508872       2.11107200       6.13179916
Al      -0.04383413       0.07386302       8.23706478
Al       2.12881489       2.06387178       8.19162939
Al       2.10945245      -0.00839531      10.20365097
Al       0.13214632       2.09775437      10.26724016
Al       0.02966098       4.17886196      -0.01645536
Al       2.11556298       6.16348575       0.06657380
Al       2.10277554       4.12294203       1.98458396
Al      12.25694474       6.23130223       1.95847027
Al      -0.05106127       4.08149833       4.11439503
Al       2.08097304       5.99380521       4.05133618
Al       1.97317471       4.04599618       6.15125417
Al      12.35625271       6.12729272       6.19575792
Al      12.14654267       4.08586603       8.26439049
Al       2.16588059       6.09797369       8.19205183
Al       2.08424707       4.04327891      10.23388114
Al       0.02087590       6.11794718      10.30365727
Al       0.02148716       8.15877517      12.35000186
Al       2.03409011      10.11924608      12.37406123
Al       2.00926668       8.16374103       2.09012355
Al      12.23137459      10.21323331       2.05628230
Al      -0.00617867       8.09299416       4.07259032
Al       1.99992386      10.23006895       4.01477046
Al       2.11658038       8.13118238       6.08475026
Al      12.22138690      10.20880610       6.15926938
Al      12.25872115       8.20568747       8.24438193
Al       2.03463706      10.19326752       8.17635575
Al       2.00575821       8.16175709      10.23763179
Al       0.05964489      10.23758258      10.23865025
Al       4.05187761       0.05621036      12.20948716
Al       6.22522468       1.99786292      12.32169813
Al       6.26695970      12.36491559       2.11322390
Al       4.21452400       1.97056932       2.09867558
Al       4.15390765      12.30250933       4.13987315
Al       6.29531699       2.14063082       4.12619056
Al       6.33613032      12.38170316       6.13869658
Al       4.11049315       2.00217470       6.11915120
Al       4.10562020      12.28502512       8.05522983
Al       6.26708064       2.10575327       8.21507564
Al       6.17609108      12.29999613      10.28159666
Al       4.11237188       2.02163613      10.21488013
Al       4.10183073       4.03595892       0.13558253
Al       6.17483109       6.27923542       0.02088777
Al       6.13866179       4.08739919       2.02853580
Al       4.17351542       6.13181768       2.16430462
Al       4.10844256       4.01243142       4.12776534
Al       6.16721463       6.12939596       4.15490324
Al       6.18066007       4.11939018       6.19205190
Al       4.02595110       6.02733308       6.12560431
Al       4.13741526       4.08982344       8.25308567
Al       6.16871707       6.15317189       8.19292173
Al       6.04504061       4.18129160      10.31218266
Al       4.09588410       6.09614642      10.35864722
Al       4.09498942       8.20996629      12.36389420
Al       6.07847070      10.28481863      12.33236148
Al       6.13253768       8.27936801       2.16002286
Al       4.07478733      10.27838177       2.08028388
Al       4.14344593       8.05510935       4.16080623
Al       6.11940057      10.33041051       4.07311300
Al       6.06102970       8.23565823       6.16996710
Al       4.07311776      10.32903538       6.11636127
Al       4.03332437       8.15979456       8.26277335
Al       6.06500758      10.28483646       8.18932303
Al       6.01570409       8.18526369      10.17913527
Al       4.02438095      10.14592293      10.24032508
Al       8.26607463       0.01349634       0.01965368
Al      10.27573589       2.14221607      -0.00290927
Al      10.21908693      12.30788223       2.06800550
Al       8.22186948       2.09967101       2.08519690
Al       8.26250532      12.29935084       4.18159811
Al      10.31511658       1.94356879       4.03416610
Al      10.32966260      12.36834120       6.08725061
Al       8.30159826       2.09660266       6.12495243
Al       8.14786895      12.30235338       8.27669184
Al      10.28118901       2.03874028       8.24102551
Al      10.13321908      12.24090250      10.22774568
Al       8.20125076       2.10204794      10.30888140
Al       8.14721226       4.10677120      12.34985481
Al      10.15793121       6.11783093      12.26802150
Al      10.26925324       4.15792843       2.08227361
Al       8.20398172       6.17523784       2.04457233
Al       8.18265417       4.08004480       4.03613020
Al      10.24302033       6.16637310       4.11996980
Al      10.25098086       4.04708300       6.10876455
Al       8.21198537       6.19085071       6.19053400
Al       8.23154176       4.06841579       8.25082348
Al      10.18858647       6.17224300       8.15532610